(written by ASE)

216 atoms
2 atom types

0.0      23.399999999999999  xlo xhi
0.0      20.264994448555868  ylo yhi
0.0                    14.6  zlo zhi
    -11.699999999999994                       0                       0  xy xz yz

Atoms # full

     1   0   2   0.0                       0                       0                       0
     2   0   1   0.0     0.29266972706689059     0.91429996765754673                       0
     3   0   1   0.0     -3.0881012911641839       6.242728214239631                       0
     4   0   2   0.0  9.2580264442353367e-16      4.5033320996790813      1.8249999999999986
     5   0   1   0.0    -0.91429996765754562      4.7960018267459699      1.8249999999999986
     6   0   1   0.0     0.51226993527898923      5.3152308085148947      1.8249999999999986
     7   0   2   0.0      3.8999999999999999      2.2516660498395407      3.6499999999999972
     8   0   1   0.0      3.6073302729331096       1.337366082181993      3.6499999999999972
     9   0   1   0.0      3.0881012911641852      2.7639359851185277      3.6499999999999972
    10   0   2   0.0                       0                       0       5.474999999999997
    11   0   1   0.0      -2.985700032342451      6.4623284224517326       5.474999999999997
    12   0   1   0.0      3.3877300647210165      5.9430994406828086       5.474999999999997
    13   0   2   0.0                       0                       0      7.2999999999999972
    14   0   1   0.0     0.29266972706689059     0.91429996765754673      7.2999999999999972
    15   0   1   0.0     -3.0881012911641839       6.242728214239631      7.2999999999999972
    16   0   2   0.0  9.2580264442353367e-16      4.5033320996790813      9.1249999999999964
    17   0   1   0.0    -0.91429996765754562      4.7960018267459699      9.1249999999999964
    18   0   1   0.0     0.51226993527898923      5.3152308085148947      9.1249999999999964
    19   0   2   0.0      3.8999999999999999      2.2516660498395407      10.949999999999994
    20   0   1   0.0      3.6073302729331096       1.337366082181993      10.949999999999994
    21   0   1   0.0      3.0881012911641852      2.7639359851185277      10.949999999999994
    22   0   2   0.0                       0                       0      12.774999999999997
    23   0   1   0.0      -2.985700032342451      6.4623284224517326      12.774999999999997
    24   0   1   0.0      3.3877300647210165      5.9430994406828086      12.774999999999997
    25   0   2   0.0     -3.8999999999999972      6.7549981495186193                       0
    26   0   1   0.0     -3.6073302729331074      7.6692981171761652                       0
    27   0   1   0.0      -6.988101291164182       12.99772636375825                       0
    28   0   2   0.0     -3.8999999999999964      11.258330249197702      1.8249999999999986
    29   0   1   0.0     -4.8142999676575435      11.550999976264588      1.8249999999999986
    30   0   1   0.0     -3.3877300647210102      12.070228958033512      1.8249999999999986
    31   0   2   0.0  4.8603096855812394e-16      9.0066641993581591      3.6499999999999972
    32   0   1   0.0    -0.29266972706688826      8.0923642317006124      3.6499999999999972
    33   0   1   0.0    -0.81189870883581239      9.5189341346371474      3.6499999999999972
    34   0   2   0.0     -3.8999999999999972      6.7549981495186193       5.474999999999997
    35   0   1   0.0     -6.8857000323424487       13.21732657197035       5.474999999999997
    36   0   1   0.0    -0.51226993527898068      12.698097590201426       5.474999999999997
    37   0   2   0.0     -3.8999999999999972      6.7549981495186193      7.2999999999999972
    38   0   1   0.0     -3.6073302729331074      7.6692981171761652      7.2999999999999972
    39   0   1   0.0      -6.988101291164182       12.99772636375825      7.2999999999999972
    40   0   2   0.0     -3.8999999999999964      11.258330249197702      9.1249999999999964
    41   0   1   0.0     -4.8142999676575435      11.550999976264588      9.1249999999999964
    42   0   1   0.0     -3.3877300647210102      12.070228958033512      9.1249999999999964
    43   0   2   0.0  4.8603096855812394e-16      9.0066641993581591      10.949999999999994
    44   0   1   0.0    -0.29266972706688826      8.0923642317006124      10.949999999999994
    45   0   1   0.0    -0.81189870883581239      9.5189341346371474      10.949999999999994
    46   0   2   0.0     -3.8999999999999972      6.7549981495186193      12.774999999999997
    47   0   1   0.0     -6.8857000323424487       13.21732657197035      12.774999999999997
    48   0   1   0.0    -0.51226993527898068      12.698097590201426      12.774999999999997
    49   0   2   0.0     -7.7999999999999954      13.509996299037239                       0
    50   0   1   0.0     -7.5073302729331042      14.424296266694784                       0
    51   0   1   0.0      -10.88810129116418      19.752724513276871                       0
    52   0   2   0.0     -7.7999999999999954      18.013328398716318      1.8249999999999986
    53   0   1   0.0     -8.7142999676575421      18.305998125783209      1.8249999999999986
    54   0   1   0.0      -7.287730064721007      18.825227107552134      1.8249999999999986
    55   0   2   0.0     -3.8999999999999968      15.761662348876778      3.6499999999999972
    56   0   1   0.0     -4.1926697270668853      14.847362381219231      3.6499999999999972
    57   0   1   0.0     -4.7118987088358111      16.273932284155769      3.6499999999999972
    58   0   2   0.0     -7.7999999999999954      13.509996299037239       5.474999999999997
    59   0   1   0.0     -10.785700032342447      19.972324721488967       5.474999999999997
    60   0   1   0.0     -4.4122699352789789      19.453095739720052       5.474999999999997
    61   0   2   0.0     -7.7999999999999954      13.509996299037239      7.2999999999999972
    62   0   1   0.0     -7.5073302729331042      14.424296266694784      7.2999999999999972
    63   0   1   0.0      -10.88810129116418      19.752724513276871      7.2999999999999972
    64   0   2   0.0     -7.7999999999999954      18.013328398716318      9.1249999999999964
    65   0   1   0.0     -8.7142999676575421      18.305998125783209      9.1249999999999964
    66   0   1   0.0      -7.287730064721007      18.825227107552134      9.1249999999999964
    67   0   2   0.0     -3.8999999999999968      15.761662348876778      10.949999999999994
    68   0   1   0.0     -4.1926697270668853      14.847362381219231      10.949999999999994
    69   0   1   0.0     -4.7118987088358111      16.273932284155769      10.949999999999994
    70   0   2   0.0     -7.7999999999999954      13.509996299037239      12.774999999999997
    71   0   1   0.0     -10.785700032342447      19.972324721488967      12.774999999999997
    72   0   1   0.0     -4.4122699352789789      19.453095739720052      12.774999999999997
    73   0   2   0.0      7.7999999999999989                       0                       0
    74   0   1   0.0       8.092669727066891     0.91429996765754673                       0
    75   0   1   0.0      4.7118987088358155       6.242728214239631                       0
    76   0   2   0.0      7.7999999999999998      4.5033320996790813      1.8249999999999986
    77   0   1   0.0       6.885700032342454      4.7960018267459699      1.8249999999999986
    78   0   1   0.0      8.3122699352789891      5.3152308085148947      1.8249999999999986
    79   0   2   0.0      11.699999999999998      2.2516660498395407      3.6499999999999972
    80   0   1   0.0      11.407330272933107       1.337366082181993      3.6499999999999972
    81   0   1   0.0      10.888101291164185      2.7639359851185277      3.6499999999999972
    82   0   2   0.0      7.7999999999999989                       0       5.474999999999997
    83   0   1   0.0      4.8142999676575471      6.4623284224517326       5.474999999999997
    84   0   1   0.0      11.187730064721015      5.9430994406828086       5.474999999999997
    85   0   2   0.0      7.7999999999999989                       0      7.2999999999999972
    86   0   1   0.0       8.092669727066891     0.91429996765754673      7.2999999999999972
    87   0   1   0.0      4.7118987088358155       6.242728214239631      7.2999999999999972
    88   0   2   0.0      7.7999999999999998      4.5033320996790813      9.1249999999999964
    89   0   1   0.0       6.885700032342454      4.7960018267459699      9.1249999999999964
    90   0   1   0.0      8.3122699352789891      5.3152308085148947      9.1249999999999964
    91   0   2   0.0      11.699999999999998      2.2516660498395407      10.949999999999994
    92   0   1   0.0      11.407330272933107       1.337366082181993      10.949999999999994
    93   0   1   0.0      10.888101291164185      2.7639359851185277      10.949999999999994
    94   0   2   0.0      7.7999999999999989                       0      12.774999999999997
    95   0   1   0.0      4.8142999676575471      6.4623284224517326      12.774999999999997
    96   0   1   0.0      11.187730064721015      5.9430994406828086      12.774999999999997
    97   0   2   0.0      3.9000000000000012      6.7549981495186193                       0
    98   0   1   0.0      4.1926697270668916      7.6692981171761652                       0
    99   0   1   0.0     0.81189870883581805       12.99772636375825                       0
   100   0   2   0.0      3.9000000000000035      11.258330249197702      1.8249999999999986
   101   0   1   0.0      2.9857000323424567      11.550999976264588      1.8249999999999986
   102   0   1   0.0      4.4122699352789905      12.070228958033512      1.8249999999999986
   103   0   2   0.0      7.7999999999999998      9.0066641993581591      3.6499999999999972
   104   0   1   0.0      7.5073302729331095      8.0923642317006124      3.6499999999999972
   105   0   1   0.0      6.9881012911641864      9.5189341346371474      3.6499999999999972
   106   0   2   0.0      3.9000000000000012      6.7549981495186193       5.474999999999997
   107   0   1   0.0     0.91429996765755017       13.21732657197035       5.474999999999997
   108   0   1   0.0      7.2877300647210177      12.698097590201426       5.474999999999997
   109   0   2   0.0      3.9000000000000012      6.7549981495186193      7.2999999999999972
   110   0   1   0.0      4.1926697270668916      7.6692981171761652      7.2999999999999972
   111   0   1   0.0     0.81189870883581805       12.99772636375825      7.2999999999999972
   112   0   2   0.0      3.9000000000000035      11.258330249197702      9.1249999999999964
   113   0   1   0.0      2.9857000323424567      11.550999976264588      9.1249999999999964
   114   0   1   0.0      4.4122699352789905      12.070228958033512      9.1249999999999964
   115   0   2   0.0      7.7999999999999998      9.0066641993581591      10.949999999999994
   116   0   1   0.0      7.5073302729331095      8.0923642317006124      10.949999999999994
   117   0   1   0.0      6.9881012911641864      9.5189341346371474      10.949999999999994
   118   0   2   0.0      3.9000000000000012      6.7549981495186193      12.774999999999997
   119   0   1   0.0     0.91429996765755017       13.21732657197035      12.774999999999997
   120   0   1   0.0      7.2877300647210177      12.698097590201426      12.774999999999997
   121   0   2   0.0  3.3935817119375614e-15      13.509996299037239                       0
   122   0   1   0.0     0.29266972706689431      14.424296266694784                       0
   123   0   1   0.0     -3.0881012911641808      19.752724513276871                       0
   124   0   2   0.0  4.5247756159167488e-15      18.013328398716318      1.8249999999999986
   125   0   1   0.0    -0.91429996765754173      18.305998125783209      1.8249999999999986
   126   0   1   0.0     0.51226993527899178      18.825227107552134      1.8249999999999986
   127   0   2   0.0      3.9000000000000021      15.761662348876778      3.6499999999999972
   128   0   1   0.0      3.6073302729331127      14.847362381219231      3.6499999999999972
   129   0   1   0.0      3.0881012911641883      16.273932284155769      3.6499999999999972
   130   0   2   0.0  3.3935817119375614e-15      13.509996299037239       5.474999999999997
   131   0   1   0.0     -2.9857000323424456      19.972324721488967       5.474999999999997
   132   0   1   0.0      3.3877300647210178      19.453095739720052       5.474999999999997
   133   0   2   0.0  3.3935817119375614e-15      13.509996299037239      7.2999999999999972
   134   0   1   0.0     0.29266972706689431      14.424296266694784      7.2999999999999972
   135   0   1   0.0     -3.0881012911641808      19.752724513276871      7.2999999999999972
   136   0   2   0.0  4.5247756159167488e-15      18.013328398716318      9.1249999999999964
   137   0   1   0.0    -0.91429996765754173      18.305998125783209      9.1249999999999964
   138   0   1   0.0     0.51226993527899178      18.825227107552134      9.1249999999999964
   139   0   2   0.0      3.9000000000000021      15.761662348876778      10.949999999999994
   140   0   1   0.0      3.6073302729331127      14.847362381219231      10.949999999999994
   141   0   1   0.0      3.0881012911641883      16.273932284155769      10.949999999999994
   142   0   2   0.0  3.3935817119375614e-15      13.509996299037239      12.774999999999997
   143   0   1   0.0     -2.9857000323424456      19.972324721488967      12.774999999999997
   144   0   1   0.0      3.3877300647210178      19.453095739720052      12.774999999999997
   145   0   2   0.0      15.599999999999998                       0                       0
   146   0   1   0.0       15.89266972706689     0.91429996765754673                       0
   147   0   1   0.0      12.511898708835815       6.242728214239631                       0
   148   0   2   0.0                    15.6      4.5033320996790813      1.8249999999999986
   149   0   1   0.0      14.685700032342455      4.7960018267459699      1.8249999999999986
   150   0   1   0.0      16.112269935278988      5.3152308085148947      1.8249999999999986
   151   0   2   0.0                    19.5      2.2516660498395407      3.6499999999999972
   152   0   1   0.0       19.20733027293311       1.337366082181993      3.6499999999999972
   153   0   1   0.0      18.688101291164184      2.7639359851185277      3.6499999999999972
   154   0   2   0.0      15.599999999999998                       0       5.474999999999997
   155   0   1   0.0      12.614299967657548      6.4623284224517326       5.474999999999997
   156   0   1   0.0      18.987730064721013      5.9430994406828086       5.474999999999997
   157   0   2   0.0      15.599999999999998                       0      7.2999999999999972
   158   0   1   0.0       15.89266972706689     0.91429996765754673      7.2999999999999972
   159   0   1   0.0      12.511898708835815       6.242728214239631      7.2999999999999972
   160   0   2   0.0                    15.6      4.5033320996790813      9.1249999999999964
   161   0   1   0.0      14.685700032342455      4.7960018267459699      9.1249999999999964
   162   0   1   0.0      16.112269935278988      5.3152308085148947      9.1249999999999964
   163   0   2   0.0                    19.5      2.2516660498395407      10.949999999999994
   164   0   1   0.0       19.20733027293311       1.337366082181993      10.949999999999994
   165   0   1   0.0      18.688101291164184      2.7639359851185277      10.949999999999994
   166   0   2   0.0      15.599999999999998                       0      12.774999999999997
   167   0   1   0.0      12.614299967657548      6.4623284224517326      12.774999999999997
   168   0   1   0.0      18.987730064721013      5.9430994406828086      12.774999999999997
   169   0   2   0.0      11.699999999999999      6.7549981495186193                       0
   170   0   1   0.0      11.992669727066891      7.6692981171761652                       0
   171   0   1   0.0      8.6118987088358168       12.99772636375825                       0
   172   0   2   0.0      11.700000000000003      11.258330249197702      1.8249999999999986
   173   0   1   0.0      10.785700032342458      11.550999976264588      1.8249999999999986
   174   0   1   0.0      12.212269935278989      12.070228958033512      1.8249999999999986
   175   0   2   0.0                    15.6      9.0066641993581591      3.6499999999999972
   176   0   1   0.0      15.307330272933113      8.0923642317006124      3.6499999999999972
   177   0   1   0.0      14.788101291164185      9.5189341346371474      3.6499999999999972
   178   0   2   0.0      11.699999999999999      6.7549981495186193       5.474999999999997
   179   0   1   0.0       8.714299967657551       13.21732657197035       5.474999999999997
   180   0   1   0.0      15.087730064721017      12.698097590201426       5.474999999999997
   181   0   2   0.0      11.699999999999999      6.7549981495186193      7.2999999999999972
   182   0   1   0.0      11.992669727066891      7.6692981171761652      7.2999999999999972
   183   0   1   0.0      8.6118987088358168       12.99772636375825      7.2999999999999972
   184   0   2   0.0      11.700000000000003      11.258330249197702      9.1249999999999964
   185   0   1   0.0      10.785700032342458      11.550999976264588      9.1249999999999964
   186   0   1   0.0      12.212269935278989      12.070228958033512      9.1249999999999964
   187   0   2   0.0                    15.6      9.0066641993581591      10.949999999999994
   188   0   1   0.0      15.307330272933113      8.0923642317006124      10.949999999999994
   189   0   1   0.0      14.788101291164185      9.5189341346371474      10.949999999999994
   190   0   2   0.0      11.699999999999999      6.7549981495186193      12.774999999999997
   191   0   1   0.0       8.714299967657551       13.21732657197035      12.774999999999997
   192   0   1   0.0      15.087730064721017      12.698097590201426      12.774999999999997
   193   0   2   0.0      7.8000000000000025      13.509996299037239                       0
   194   0   1   0.0      8.0926697270668946      14.424296266694784                       0
   195   0   1   0.0        4.71189870883582      19.752724513276871                       0
   196   0   2   0.0      7.8000000000000016      18.013328398716318      1.8249999999999986
   197   0   1   0.0      6.8857000323424522      18.305998125783209      1.8249999999999986
   198   0   1   0.0      8.3122699352789908      18.825227107552134      1.8249999999999986
   199   0   2   0.0      11.700000000000003      15.761662348876778      3.6499999999999972
   200   0   1   0.0      11.407330272933111      14.847362381219231      3.6499999999999972
   201   0   1   0.0      10.888101291164187      16.273932284155769      3.6499999999999972
   202   0   2   0.0      7.8000000000000025      13.509996299037239       5.474999999999997
   203   0   1   0.0      4.8142999676575551      19.972324721488967       5.474999999999997
   204   0   1   0.0      11.187730064721016      19.453095739720052       5.474999999999997
   205   0   2   0.0      7.8000000000000025      13.509996299037239      7.2999999999999972
   206   0   1   0.0      8.0926697270668946      14.424296266694784      7.2999999999999972
   207   0   1   0.0        4.71189870883582      19.752724513276871      7.2999999999999972
   208   0   2   0.0      7.8000000000000016      18.013328398716318      9.1249999999999964
   209   0   1   0.0      6.8857000323424522      18.305998125783209      9.1249999999999964
   210   0   1   0.0      8.3122699352789908      18.825227107552134      9.1249999999999964
   211   0   2   0.0      11.700000000000003      15.761662348876778      10.949999999999994
   212   0   1   0.0      11.407330272933111      14.847362381219231      10.949999999999994
   213   0   1   0.0      10.888101291164187      16.273932284155769      10.949999999999994
   214   0   2   0.0      7.8000000000000025      13.509996299037239      12.774999999999997
   215   0   1   0.0      4.8142999676575551      19.972324721488967      12.774999999999997
   216   0   1   0.0      11.187730064721016      19.453095739720052      12.774999999999997
