ITEM: TIMESTEP
101
ITEM: NUMBER OF ATOMS
216
ITEM: BOX BOUNDS xy xz yz pp pp pp
-1.1699999999999994e+01 2.3399999999999999e+01 -1.1699999999999994e+01
0.0000000000000000e+00 2.0264994448555868e+01 0.0000000000000000e+00
0.0000000000000000e+00 1.4600000000000000e+01 0.0000000000000000e+00
ITEM: ATOMS id type xs ys zs
1 2 0.943038 0.0250921 0.975734
2 1 0.203892 0.112215 0.0430097
3 1 0.0494891 0.304566 0.0340801
4 2 0.0777715 0.161884 0.0267565
5 1 0.0885208 0.238822 0.215208
6 1 0.231325 0.250364 0.140769
10 2 0.956517 0.0759971 0.195615
11 1 0.00607416 0.311855 0.309839
13 2 0.943038 0.0250921 0.475734
14 1 0.203892 0.112215 0.54301
15 1 0.0494891 0.304566 0.53408
25 2 0.943038 0.358425 0.975734
34 2 0.956517 0.40933 0.195615
37 2 0.943038 0.358425 0.475734
7 2 0.310688 0.169025 0.377722
8 1 0.164031 0.0309243 0.350057
9 1 0.112072 0.106745 0.209481
12 1 0.189913 0.21251 0.371727
73 2 0.276372 0.0250921 0.975734
74 1 0.537225 0.112215 0.0430097
75 1 0.382822 0.304566 0.0340801
76 2 0.411105 0.161884 0.0267565
77 1 0.421854 0.238822 0.215208
78 1 0.564659 0.250364 0.140769
82 2 0.289851 0.0759971 0.195615
83 1 0.339407 0.311855 0.309839
85 2 0.276372 0.0250921 0.475734
86 1 0.537225 0.112215 0.54301
87 1 0.382822 0.304566 0.53408
97 2 0.276372 0.358425 0.975734
106 2 0.289851 0.40933 0.195615
109 2 0.276372 0.358425 0.475734
79 2 0.644021 0.169025 0.377722
80 1 0.497364 0.0309243 0.350057
81 1 0.445406 0.106745 0.209481
84 1 0.523247 0.21251 0.371727
145 2 0.609705 0.0250921 0.975734
146 1 0.870559 0.112215 0.0430097
147 1 0.716156 0.304566 0.0340801
148 2 0.744438 0.161884 0.0267565
149 1 0.755187 0.238822 0.215208
150 1 0.897992 0.250364 0.140769
154 2 0.623184 0.0759971 0.195615
155 1 0.672741 0.311855 0.309839
157 2 0.609705 0.0250921 0.475734
158 1 0.870559 0.112215 0.54301
159 1 0.716156 0.304566 0.53408
169 2 0.609705 0.358425 0.975734
178 2 0.623184 0.40933 0.195615
181 2 0.609705 0.358425 0.475734
151 2 0.977355 0.169025 0.377722
152 1 0.830698 0.0309243 0.350057
153 1 0.778739 0.106745 0.209481
156 1 0.85658 0.21251 0.371727
27 1 0.0494891 0.637899 0.0340801
29 1 0.0885208 0.572155 0.215208
35 1 0.00607416 0.645188 0.309839
39 1 0.0494891 0.637899 0.53408
26 1 0.203892 0.445549 0.0430097
28 2 0.0777715 0.495217 0.0267565
30 1 0.231325 0.583698 0.140769
31 2 0.310688 0.502359 0.377722
32 1 0.164031 0.364258 0.350057
33 1 0.112072 0.440079 0.209481
36 1 0.189913 0.545843 0.371727
38 1 0.203892 0.445549 0.54301
99 1 0.382822 0.637899 0.0340801
107 1 0.339407 0.645188 0.309839
111 1 0.382822 0.637899 0.53408
121 2 0.276372 0.691759 0.975734
130 2 0.289851 0.742664 0.195615
133 2 0.276372 0.691759 0.475734
98 1 0.537225 0.445549 0.0430097
100 2 0.411105 0.495217 0.0267565
101 1 0.421854 0.572155 0.215208
102 1 0.564659 0.583698 0.140769
103 2 0.644021 0.502359 0.377722
104 1 0.497364 0.364258 0.350057
105 1 0.445406 0.440079 0.209481
108 1 0.523247 0.545843 0.371727
110 1 0.537225 0.445549 0.54301
171 1 0.716156 0.637899 0.0340801
179 1 0.672741 0.645188 0.309839
183 1 0.716156 0.637899 0.53408
193 2 0.609705 0.691759 0.975734
202 2 0.623184 0.742664 0.195615
205 2 0.609705 0.691759 0.475734
49 2 0.943038 0.691759 0.975734
58 2 0.956517 0.742664 0.195615
61 2 0.943038 0.691759 0.475734
170 1 0.870559 0.445549 0.0430097
172 2 0.744438 0.495217 0.0267565
173 1 0.755187 0.572155 0.215208
174 1 0.897992 0.583698 0.140769
175 2 0.977355 0.502359 0.377722
176 1 0.830698 0.364258 0.350057
177 1 0.778739 0.440079 0.209481
180 1 0.85658 0.545843 0.371727
182 1 0.870559 0.445549 0.54301
50 1 0.203892 0.778882 0.0430097
51 1 0.0494891 0.971233 0.0340801
52 2 0.0777715 0.828551 0.0267565
53 1 0.0885208 0.905488 0.215208
54 1 0.231325 0.917031 0.140769
57 1 0.112072 0.773412 0.209481
59 1 0.00607416 0.978521 0.309839
62 1 0.203892 0.778882 0.54301
63 1 0.0494891 0.971233 0.53408
55 2 0.310688 0.835692 0.377722
56 1 0.164031 0.697591 0.350057
60 1 0.189913 0.879177 0.371727
122 1 0.537225 0.778882 0.0430097
123 1 0.382822 0.971233 0.0340801
124 2 0.411105 0.828551 0.0267565
125 1 0.421854 0.905488 0.215208
126 1 0.564659 0.917031 0.140769
131 1 0.339407 0.978521 0.309839
134 1 0.537225 0.778882 0.54301
135 1 0.382822 0.971233 0.53408
127 2 0.644021 0.835692 0.377722
128 1 0.497364 0.697591 0.350057
129 1 0.445406 0.773412 0.209481
132 1 0.523247 0.879177 0.371727
194 1 0.870559 0.778882 0.0430097
195 1 0.716156 0.971233 0.0340801
196 2 0.744438 0.828551 0.0267565
197 1 0.755187 0.905488 0.215208
198 1 0.897992 0.917031 0.140769
203 1 0.672741 0.978521 0.309839
206 1 0.870559 0.778882 0.54301
207 1 0.716156 0.971233 0.53408
199 2 0.977355 0.835692 0.377722
200 1 0.830698 0.697591 0.350057
201 1 0.778739 0.773412 0.209481
204 1 0.85658 0.879177 0.371727
16 2 0.0777715 0.161884 0.526757
17 1 0.0885208 0.238822 0.715208
18 1 0.231325 0.250364 0.640769
22 2 0.956517 0.0759971 0.695615
23 1 0.00607416 0.311855 0.809839
46 2 0.956517 0.40933 0.695615
19 2 0.310688 0.169025 0.877722
20 1 0.164031 0.0309243 0.850057
21 1 0.112072 0.106745 0.709481
24 1 0.189913 0.21251 0.871727
88 2 0.411105 0.161884 0.526757
89 1 0.421854 0.238822 0.715208
90 1 0.564659 0.250364 0.640769
94 2 0.289851 0.0759971 0.695615
95 1 0.339407 0.311855 0.809839
118 2 0.289851 0.40933 0.695615
91 2 0.644021 0.169025 0.877722
92 1 0.497364 0.0309243 0.850057
93 1 0.445406 0.106745 0.709481
96 1 0.523247 0.21251 0.871727
160 2 0.744438 0.161884 0.526757
161 1 0.755187 0.238822 0.715208
162 1 0.897992 0.250364 0.640769
166 2 0.623184 0.0759971 0.695615
167 1 0.672741 0.311855 0.809839
190 2 0.623184 0.40933 0.695615
163 2 0.977355 0.169025 0.877722
164 1 0.830698 0.0309243 0.850057
165 1 0.778739 0.106745 0.709481
168 1 0.85658 0.21251 0.871727
41 1 0.0885208 0.572155 0.715208
47 1 0.00607416 0.645188 0.809839
40 2 0.0777715 0.495217 0.526757
42 1 0.231325 0.583698 0.640769
43 2 0.310688 0.502359 0.877722
44 1 0.164031 0.364258 0.850057
45 1 0.112072 0.440079 0.709481
48 1 0.189913 0.545843 0.871727
119 1 0.339407 0.645188 0.809839
142 2 0.289851 0.742664 0.695615
112 2 0.411105 0.495217 0.526757
113 1 0.421854 0.572155 0.715208
114 1 0.564659 0.583698 0.640769
115 2 0.644021 0.502359 0.877722
116 1 0.497364 0.364258 0.850057
117 1 0.445406 0.440079 0.709481
120 1 0.523247 0.545843 0.871727
191 1 0.672741 0.645188 0.809839
214 2 0.623184 0.742664 0.695615
70 2 0.956517 0.742664 0.695615
184 2 0.744438 0.495217 0.526757
185 1 0.755187 0.572155 0.715208
186 1 0.897992 0.583698 0.640769
187 2 0.977355 0.502359 0.877722
188 1 0.830698 0.364258 0.850057
189 1 0.778739 0.440079 0.709481
192 1 0.85658 0.545843 0.871727
64 2 0.0777715 0.828551 0.526757
65 1 0.0885208 0.905488 0.715208
66 1 0.231325 0.917031 0.640769
69 1 0.112072 0.773412 0.709481
71 1 0.00607416 0.978521 0.809839
67 2 0.310688 0.835692 0.877722
68 1 0.164031 0.697591 0.850057
72 1 0.189913 0.879177 0.871727
136 2 0.411105 0.828551 0.526757
137 1 0.421854 0.905488 0.715208
138 1 0.564659 0.917031 0.640769
143 1 0.339407 0.978521 0.809839
139 2 0.644021 0.835692 0.877722
140 1 0.497364 0.697591 0.850057
141 1 0.445406 0.773412 0.709481
144 1 0.523247 0.879177 0.871727
208 2 0.744438 0.828551 0.526757
209 1 0.755187 0.905488 0.715208
210 1 0.897992 0.917031 0.640769
215 1 0.672741 0.978521 0.809839
211 2 0.977355 0.835692 0.877722
212 1 0.830698 0.697591 0.850057
213 1 0.778739 0.773412 0.709481
216 1 0.85658 0.879177 0.871727
