(written by ASE)

213 atoms
2 atom types

0.0      23.399999999999999  xlo xhi
0.0      20.264994448555868  ylo yhi
0.0                    14.6  zlo zhi
    -11.699999999999994                       0                       0  xy xz yz

Atoms # atomic

     1   1                       0                       0                       0
     2   2     0.29266972706689059     0.91429996765754673                       0
     3   2     -3.0881012911641839       6.242728214239631                       0
     4   1  1.0451516195707381e-15      4.5033320996790813      1.8249999999999986
     5   2    -0.91429996765754629      4.7960018267459699      1.8249999999999986
     6   2     0.51226993527898923      5.3152308085148947      1.8249999999999986
     7   1      3.8999999999999995      2.2516660498395407      3.6499999999999972
     8   2      3.6073302729331096       1.337366082181993      3.6499999999999972
     9   2      3.0881012911641852      2.7639359851185277      3.6499999999999972
    10   1                       0                       0       5.474999999999997
    11   2      -2.985700032342451      6.4623284224517326       5.474999999999997
    12   2      3.3877300647210165      5.9430994406828086       5.474999999999997
    13   1                       0                       0      7.2999999999999954
    14   2     0.29266972706689059     0.91429996765754673      7.2999999999999954
    15   2     -3.0881012911641839       6.242728214239631      7.2999999999999954
    16   1  1.0451516195707381e-15      4.5033320996790813      9.1249999999999964
    17   2    -0.91429996765754629      4.7960018267459699      9.1249999999999964
    18   2     0.51226993527898923      5.3152308085148947      9.1249999999999964
    19   1      3.8999999999999995      2.2516660498395407      10.949999999999994
    20   2      3.6073302729331096       1.337366082181993      10.949999999999994
    21   2      3.0881012911641852      2.7639359851185277      10.949999999999994
    22   1                       0                       0      12.774999999999997
    23   2      -2.985700032342451      6.4623284224517326      12.774999999999997
    24   2      3.3877300647210165      5.9430994406828086      12.774999999999997
    25   1     -3.8999999999999972      6.7549981495186193                       0
    26   2     -3.6073302729331074      7.6692981171761652                       0
    27   2      -6.988101291164182       12.99772636375825                       0
    28   1     -3.8999999999999955      11.258330249197702      1.8249999999999986
    29   2     -4.8142999676575435      11.550999976264588      1.8249999999999986
    30   2     -3.3877300647210116      12.070228958033512      1.8249999999999986
    31   1  4.8603096855812394e-16      9.0066641993581591      3.6499999999999972
    32   2    -0.29266972706688826      8.0923642317006124      3.6499999999999972
    33   2    -0.81189870883581239      9.5189341346371474      3.6499999999999972
    34   1     -3.8999999999999972      6.7549981495186193       5.474999999999997
    35   2     -6.8857000323424487       13.21732657197035       5.474999999999997
    36   2    -0.51226993527898068      12.698097590201426       5.474999999999997
    37   1     -3.8999999999999972      6.7549981495186193      7.2999999999999954
    38   2     -3.6073302729331074      7.6692981171761652      7.2999999999999954
    39   2      -6.988101291164182       12.99772636375825      7.2999999999999954
    40   1     -3.8999999999999955      11.258330249197702      9.1249999999999964
    41   2     -4.8142999676575435      11.550999976264588      9.1249999999999964
    42   2     -3.3877300647210116      12.070228958033512      9.1249999999999964
    43   1  4.8603096855812394e-16      9.0066641993581591      10.949999999999994
    44   2    -0.29266972706688826      8.0923642317006124      10.949999999999994
    45   2    -0.81189870883581239      9.5189341346371474      10.949999999999994
    46   1     -3.8999999999999972      6.7549981495186193      12.774999999999997
    47   2     -6.8857000323424487       13.21732657197035      12.774999999999997
    48   2    -0.51226993527898068      12.698097590201426      12.774999999999997
    49   1     -7.7999999999999954      13.509996299037239                       0
    50   2     -7.5073302729331024      14.424296266694784                       0
    51   2      -10.88810129116418      19.752724513276871                       0
    52   1     -7.7999999999999972      18.013328398716318      1.8249999999999986
    53   2     -8.7142999676575421      18.305998125783209      1.8249999999999986
    54   2      -7.287730064721007      18.825227107552134      1.8249999999999986
    55   1     -3.8999999999999968      15.761662348876778      3.6499999999999972
    56   2     -4.1926697270668853      14.847362381219231      3.6499999999999972
    57   2     -4.7118987088358093      16.273932284155769      3.6499999999999972
    58   1     -7.7999999999999954      13.509996299037239       5.474999999999997
    59   2     -10.785700032342447      19.972324721488967       5.474999999999997
    60   2     -4.4122699352789789      19.453095739720052       5.474999999999997
    61   1     -7.7999999999999954      13.509996299037239      7.2999999999999954
    62   2     -7.5073302729331024      14.424296266694784      7.2999999999999954
    63   2      -10.88810129116418      19.752724513276871      7.2999999999999954
    64   1     -7.7999999999999972      18.013328398716318      9.1249999999999964
    65   2     -8.7142999676575421      18.305998125783209      9.1249999999999964
    66   2      -7.287730064721007      18.825227107552134      9.1249999999999964
    67   1     -3.8999999999999968      15.761662348876778      10.949999999999994
    68   2     -4.1926697270668853      14.847362381219231      10.949999999999994
    69   2     -4.7118987088358093      16.273932284155769      10.949999999999994
    70   1     -7.7999999999999954      13.509996299037239      12.774999999999997
    71   2     -10.785700032342447      19.972324721488967      12.774999999999997
    72   2     -4.4122699352789789      19.453095739720052      12.774999999999997
    73   1      7.7999999999999989                       0                       0
    74   2       8.092669727066891     0.91429996765754673                       0
    75   2      4.7118987088358155       6.242728214239631                       0
    76   1      7.7999999999999989      4.5033320996790813      1.8249999999999986
    77   2       6.885700032342454      4.7960018267459699      1.8249999999999986
    78   2      8.3122699352789891      5.3152308085148947      1.8249999999999986
    79   1      11.699999999999998      2.2516660498395407      3.6499999999999972
    80   2      11.407330272933107       1.337366082181993      3.6499999999999972
    81   2      10.888101291164185      2.7639359851185277      3.6499999999999972
    82   1      7.7999999999999989                       0       5.474999999999997
    83   2      4.8142999676575471      6.4623284224517326       5.474999999999997
    84   2      11.187730064721015      5.9430994406828086       5.474999999999997
    85   1      7.7999999999999989                       0      7.2999999999999954
    86   2       8.092669727066891     0.91429996765754673      7.2999999999999954
    87   2      4.7118987088358155       6.242728214239631      7.2999999999999954
    88   1      7.7999999999999989      4.5033320996790813      9.1249999999999964
    89   2       6.885700032342454      4.7960018267459699      9.1249999999999964
    90   2      8.3122699352789891      5.3152308085148947      9.1249999999999964
    91   1      11.699999999999998      2.2516660498395407      10.949999999999994
    92   2      11.407330272933107       1.337366082181993      10.949999999999994
    93   2      10.888101291164185      2.7639359851185277      10.949999999999994
    94   1      7.7999999999999989                       0      12.774999999999997
    95   2      4.8142999676575471      6.4623284224517326      12.774999999999997
    96   2      11.187730064721015      5.9430994406828086      12.774999999999997
    97   1      3.9000000000000012      6.7549981495186193                       0
    98   2      4.1926697270668916      7.6692981171761652                       0
    99   2     0.81189870883581805       12.99772636375825                       0
   100   1      3.9000000000000035      11.258330249197702      1.8249999999999986
   101   2      2.9857000323424567      11.550999976264588      1.8249999999999986
   102   2      4.4122699352789905      12.070228958033512      1.8249999999999986
   103   1      7.7999999999999998      9.0066641993581591      3.6499999999999972
   104   2      7.5073302729331095      8.0923642317006124      3.6499999999999972
   105   2      6.9881012911641864      9.5189341346371474      3.6499999999999972
   106   1      3.9000000000000012      6.7549981495186193       5.474999999999997
   107   2     0.91429996765755017       13.21732657197035       5.474999999999997
   108   2      7.2877300647210177      12.698097590201426       5.474999999999997
   109   1      3.9000000000000012      6.7549981495186193      7.2999999999999954
   110   2      4.1926697270668916      7.6692981171761652      7.2999999999999954
   111   2     0.81189870883581805       12.99772636375825      7.2999999999999954
   112   1      7.7999999999999998      9.0066641993581591      10.949999999999994
   113   2      7.5073302729331095      8.0923642317006124      10.949999999999994
   114   2      6.9881012911641864      9.5189341346371474      10.949999999999994
   115   1      3.9000000000000012      6.7549981495186193      12.774999999999997
   116   2     0.91429996765755017       13.21732657197035      12.774999999999997
   117   2      7.2877300647210177      12.698097590201426      12.774999999999997
   118   1  3.3935817119375614e-15      13.509996299037239                       0
   119   2     0.29266972706689431      14.424296266694784                       0
   120   2     -3.0881012911641808      19.752724513276871                       0
   121   1  4.5247756159167488e-15      18.013328398716318      1.8249999999999986
   122   2    -0.91429996765754173      18.305998125783209      1.8249999999999986
   123   2     0.51226993527899178      18.825227107552134      1.8249999999999986
   124   1      3.9000000000000021      15.761662348876778      3.6499999999999972
   125   2      3.6073302729331127      14.847362381219231      3.6499999999999972
   126   2       3.088101291164187      16.273932284155769      3.6499999999999972
   127   1  3.3935817119375614e-15      13.509996299037239       5.474999999999997
   128   2     -2.9857000323424456      19.972324721488967       5.474999999999997
   129   2      3.3877300647210165      19.453095739720052       5.474999999999997
   130   1  3.3935817119375614e-15      13.509996299037239      7.2999999999999954
   131   2     0.29266972706689431      14.424296266694784      7.2999999999999954
   132   2     -3.0881012911641808      19.752724513276871      7.2999999999999954
   133   1  4.5247756159167488e-15      18.013328398716318      9.1249999999999964
   134   2    -0.91429996765754173      18.305998125783209      9.1249999999999964
   135   2     0.51226993527899178      18.825227107552134      9.1249999999999964
   136   1      3.9000000000000021      15.761662348876778      10.949999999999994
   137   2      3.6073302729331127      14.847362381219231      10.949999999999994
   138   2       3.088101291164187      16.273932284155769      10.949999999999994
   139   1  3.3935817119375614e-15      13.509996299037239      12.774999999999997
   140   2     -2.9857000323424456      19.972324721488967      12.774999999999997
   141   2      3.3877300647210165      19.453095739720052      12.774999999999997
   142   1      15.599999999999998                       0                       0
   143   2       15.89266972706689     0.91429996765754673                       0
   144   2      12.511898708835815       6.242728214239631                       0
   145   1                    15.6      4.5033320996790813      1.8249999999999986
   146   2      14.685700032342455      4.7960018267459699      1.8249999999999986
   147   2      16.112269935278988      5.3152308085148947      1.8249999999999986
   148   1                    19.5      2.2516660498395407      3.6499999999999972
   149   2       19.20733027293311       1.337366082181993      3.6499999999999972
   150   2      18.688101291164184      2.7639359851185277      3.6499999999999972
   151   1      15.599999999999998                       0       5.474999999999997
   152   2      12.614299967657548      6.4623284224517326       5.474999999999997
   153   2      18.987730064721013      5.9430994406828086       5.474999999999997
   154   1      15.599999999999998                       0      7.2999999999999954
   155   2       15.89266972706689     0.91429996765754673      7.2999999999999954
   156   2      12.511898708835815       6.242728214239631      7.2999999999999954
   157   1                    15.6      4.5033320996790813      9.1249999999999964
   158   2      14.685700032342455      4.7960018267459699      9.1249999999999964
   159   2      16.112269935278988      5.3152308085148947      9.1249999999999964
   160   1                    19.5      2.2516660498395407      10.949999999999994
   161   2       19.20733027293311       1.337366082181993      10.949999999999994
   162   2      18.688101291164184      2.7639359851185277      10.949999999999994
   163   1      15.599999999999998                       0      12.774999999999997
   164   2      12.614299967657548      6.4623284224517326      12.774999999999997
   165   2      18.987730064721013      5.9430994406828086      12.774999999999997
   166   1      11.699999999999999      6.7549981495186193                       0
   167   2      11.992669727066891      7.6692981171761652                       0
   168   2      8.6118987088358168       12.99772636375825                       0
   169   1      11.700000000000003      11.258330249197702      1.8249999999999986
   170   2      10.785700032342458      11.550999976264588      1.8249999999999986
   171   2      12.212269935278989      12.070228958033512      1.8249999999999986
   172   1                    15.6      9.0066641993581591      3.6499999999999972
   173   2      15.307330272933113      8.0923642317006124      3.6499999999999972
   174   2      14.788101291164185      9.5189341346371474      3.6499999999999972
   175   1      11.699999999999999      6.7549981495186193       5.474999999999997
   176   2       8.714299967657551       13.21732657197035       5.474999999999997
   177   2      15.087730064721017      12.698097590201426       5.474999999999997
   178   1      11.699999999999999      6.7549981495186193      7.2999999999999954
   179   2      11.992669727066891      7.6692981171761652      7.2999999999999954
   180   2      8.6118987088358168       12.99772636375825      7.2999999999999954
   181   1      11.700000000000003      11.258330249197702      9.1249999999999964
   182   2      10.785700032342458      11.550999976264588      9.1249999999999964
   183   2      12.212269935278989      12.070228958033512      9.1249999999999964
   184   1                    15.6      9.0066641993581591      10.949999999999994
   185   2      15.307330272933113      8.0923642317006124      10.949999999999994
   186   2      14.788101291164185      9.5189341346371474      10.949999999999994
   187   1      11.699999999999999      6.7549981495186193      12.774999999999997
   188   2       8.714299967657551       13.21732657197035      12.774999999999997
   189   2      15.087730064721017      12.698097590201426      12.774999999999997
   190   1      7.8000000000000025      13.509996299037239                       0
   191   2      8.0926697270668946      14.424296266694784                       0
   192   2        4.71189870883582      19.752724513276871                       0
   193   1      7.8000000000000016      18.013328398716318      1.8249999999999986
   194   2      6.8857000323424522      18.305998125783209      1.8249999999999986
   195   2      8.3122699352789908      18.825227107552134      1.8249999999999986
   196   1      11.700000000000003      15.761662348876778      3.6499999999999972
   197   2      11.407330272933111      14.847362381219231      3.6499999999999972
   198   2      10.888101291164185      16.273932284155769      3.6499999999999972
   199   1      7.8000000000000025      13.509996299037239       5.474999999999997
   200   2      4.8142999676575551      19.972324721488967       5.474999999999997
   201   2      11.187730064721015      19.453095739720052       5.474999999999997
   202   1      7.8000000000000025      13.509996299037239      7.2999999999999954
   203   2      8.0926697270668946      14.424296266694784      7.2999999999999954
   204   2        4.71189870883582      19.752724513276871      7.2999999999999954
   205   1      7.8000000000000016      18.013328398716318      9.1249999999999964
   206   2      6.8857000323424522      18.305998125783209      9.1249999999999964
   207   2      8.3122699352789908      18.825227107552134      9.1249999999999964
   208   1      11.700000000000003      15.761662348876778      10.949999999999994
   209   2      11.407330272933111      14.847362381219231      10.949999999999994
   210   2      10.888101291164185      16.273932284155769      10.949999999999994
   211   1      7.8000000000000025      13.509996299037239      12.774999999999997
   212   2      4.8142999676575551      19.972324721488967      12.774999999999997
   213   2      11.187730064721015      19.453095739720052      12.774999999999997
