LAMMPS data file via write_data, version 7 Feb 2024, timestep = 101, units = metal

216 atoms
2 atom types

0 23.4 xlo xhi
0 20.264994448555868 ylo yhi
0 14.6 zlo zhi
-11.699999999999994 0 0 xy xz yz

Masses

1 15.9994
2 1.008

Pair Coeffs # lj/cut

1 0.1 3
2 0.1 3

Atoms # full

1 0 2 0 21.773517442064918 0.5084921691429884 14.245713540720608 -1 0 -1
2 0 1 0 3.458155890448097 2.2740432348709847 0.6279421616921259 0 0 0
3 0 1 0 -2.40537756736982 6.1720276145049064 0.49756982363337543 0 0 0
4 0 2 0 -0.07418742299251924 3.2805752540467332 0.3906449172354463 0 0 0
5 0 1 0 -0.7228272568278822 4.839718620153963 3.1420363908159943 0 0 0
6 0 1 0 2.483750063267498 5.07363218700962 2.055230055420686 0 0 0
10 0 2 0 21.49334124750018 1.5400800963168844 2.8559794966759573 -1 0 0
11 0 1 0 -3.5065636447789874 6.319731836145862 4.523654219399545 0 0 0
13 0 2 0 21.77351744137492 0.5084921690946707 6.945713540640262 -1 0 0
14 0 1 0 3.4581558912470323 2.274043236152101 7.927942161624996 0 0 0
15 0 1 0 -2.4053775670713238 6.172027615778227 7.797569823211716 0 0 0
25 0 2 0 17.87351744206044 7.263490319114973 14.245713540666168 -1 0 -1
34 0 2 0 17.593341246487757 8.295078245486247 2.855979496717363 -1 0 0
37 0 2 0 17.873517441777338 7.263490318743617 6.945713540794556 -1 0 0
7 0 2 0 5.292503496256769 3.4252976253682297 5.514748038149074 0 0 0
8 0 1 0 3.4765081729452074 0.626680492994848 5.110835909848435 0 0 0
9 0 1 0 1.3735723328604446 2.1631961526511763 3.058428799384102 0 0 0
12 0 1 0 1.9576072500658572 4.306513613354684 5.42721664896999 0 0 0
73 0 2 0 6.173517441676315 0.5084921691695793 14.245713540526172 0 0 -1
74 0 1 0 11.258155891149238 2.2740432361259444 0.6279421614174239 0 0 0
75 0 1 0 5.394622432977621 6.172027615817721 0.49756982339626576 0 0 0
76 0 2 0 7.725812576589261 3.280575254186397 0.3906449165592421 0 0 0
77 0 1 0 7.077172742396467 4.839718619794845 3.142036390321084 0 0 0
78 0 1 0 10.283750062428599 5.0736321874766706 2.0552300552799765 0 0 0
82 0 2 0 5.893341246623131 1.5400800958934182 2.855979496515988 0 0 0
83 0 1 0 4.293436355393306 6.3197318362939905 4.52365422025071 0 0 0
85 0 2 0 6.173517442211536 0.5084921695570357 6.945713540983562 0 0 0
86 0 1 0 11.258155890812334 2.274043235372956 7.927942162048549 0 0 0
87 0 1 0 5.394622432664321 6.172027615184744 7.797569823681738 0 0 0
97 0 2 0 2.273517441624068 7.263490318594822 14.245713541000736 0 0 -1
106 0 2 0 1.9933412460632338 8.295078245041916 2.855979496983844 0 0 0
109 0 2 0 2.273517441637294 7.263490319156374 6.94571354098937 0 0 0
79 0 2 0 13.092503496121479 3.4252976255696796 5.514748039037706 0 0 0
80 0 1 0 11.276508172465462 0.6266804936744557 5.1108359096334635 0 0 0
81 0 1 0 9.173572332494837 2.1631961525981778 3.0584287982363914 0 0 0
84 0 1 0 9.757607249754496 4.3065136126844346 5.427216648709434 0 0 0
145 0 2 0 13.973517441553739 0.5084921690299168 14.24571354092353 0 0 -1
146 0 1 0 19.058155891363256 2.2740432360254257 0.6279421621574865 0 0 0
147 0 1 0 13.194622432850572 6.172027614787479 0.4975698228685965 0 0 0
148 0 2 0 15.525812576067253 3.280575254324172 0.39064491657731837 0 0 0
149 0 1 0 14.877172741596269 4.839718619466109 3.142036390369623 0 0 0
150 0 1 0 18.08375006158606 5.07363218744534 2.0552300551199143 0 0 0
154 0 2 0 13.69334124628725 1.5400800958106975 2.8559794971501256 0 0 0
155 0 1 0 12.093436355123224 6.319731836240521 4.523654220272018 0 0 0
157 0 2 0 13.973517441883875 0.5084921694150949 6.945713540609693 0 0 0
158 0 1 0 19.058155890669827 2.274043235430269 7.9279421609768574 0 0 0
159 0 1 0 13.194622432522925 6.172027615474141 7.797569823976856 0 0 0
169 0 2 0 10.073517442147743 7.26349031895115 14.245713540527486 0 0 -1
178 0 2 0 9.793341246641823 8.295078245443023 2.855979496747223 0 0 0
181 0 2 0 10.073517441443242 7.263490318783466 6.945713541033711 0 0 0
151 0 2 0 20.892503496222503 3.4252976256072127 5.5147480382809615 0 0 0
152 0 1 0 19.07650817296502 0.6266804936308515 5.110835908497863 0 0 0
153 0 1 0 16.973572331817305 2.163196152489082 3.0584287981444387 0 0 0
156 0 1 0 17.55760724964081 4.306513613004074 5.427216648121721 0 0 0
27 0 1 0 -6.305377567244576 12.927025764825718 0.49756982381607434 0 0 0
29 0 1 0 -4.622827257414826 11.594716768949416 3.1420363906020805 0 0 0
35 0 1 0 -7.406563644522491 13.074729985485 4.523654219726475 0 0 0
39 0 1 0 -6.305377567107234 12.927025765332923 7.797569823340649 0 0 0
26 0 1 0 -0.4418441093946175 9.029041384662206 0.6279421613055962 0 0 0
28 0 2 0 -3.9741874236765993 10.035573404362475 0.39064491643064864 0 0 0
30 0 1 0 -1.416249937158848 11.828630336443778 2.055230055182853 0 0 0
31 0 2 0 1.3925034967295113 10.180295775116956 5.5147480388049335 0 0 0
32 0 1 0 -0.42349182788770356 7.381678644000617 5.1108359100513665 0 0 0
33 0 1 0 -2.52642766785194 8.918194301994642 3.058428798089584 0 0 0
36 0 1 0 -1.9423927497616509 11.061511761809914 5.427216648631775 0 0 0
38 0 1 0 -0.44184410869757684 9.029041385996218 7.927942162180015 0 0 0
99 0 1 0 1.494622433008261 12.927025765176952 0.497569823032981 0 0 0
107 0 1 0 0.3934363553211888 13.074729985625659 4.523654220010024 0 0 0
111 0 1 0 1.494622432470318 12.927025764436593 7.7975698241217195 0 0 0
121 0 2 0 -1.6264825581759617 14.018488468143827 14.245713540735348 0 0 -1
130 0 2 0 -1.906658752838891 15.050076394593608 2.8559794966679415 0 0 0
133 0 2 0 -1.6264825583506237 14.0184884682308 6.945713540915517 0 0 0
98 0 1 0 7.358155891348444 9.029041385435034 0.627942161534017 0 0 0
100 0 2 0 3.825812576269114 10.035573403801484 0.39064491615391933 0 0 0
101 0 1 0 3.1771727419773734 11.594716768719422 3.142036389995426 0 0 0
102 0 1 0 6.383750062064546 11.828630336525965 2.055230055109667 0 0 0
103 0 2 0 9.192503496644163 10.180295774969796 5.514748038656826 0 0 0
104 0 1 0 7.376508172512912 7.381678643625933 5.110835909436733 0 0 0
105 0 1 0 5.273572332007281 8.91819430164379 3.0584287974999143 0 0 0
108 0 1 0 5.857607250039387 11.061511761629102 5.427216648052319 0 0 0
110 0 1 0 7.358155891091532 9.029041385476074 7.927942161764132 0 0 0
171 0 1 0 9.294622432566966 12.927025765662595 0.4975698240779362 0 0 0
179 0 1 0 8.193436355285519 13.074729985274177 4.523654219438197 0 0 0
183 0 1 0 9.29462243293199 12.927025764468974 7.797569823196173 0 0 0
193 0 2 0 6.173517441092281 14.018488468252633 14.24571354080666 0 0 -1
202 0 2 0 5.893341246400286 15.050076394505062 2.8559794967407304 0 0 0
205 0 2 0 6.173517442075031 14.018488467819289 6.94571354087853 0 0 0
49 0 2 0 13.973517441534279 14.018488468309293 14.245713541463738 -1 0 -1
58 0 2 0 13.693341246696878 15.050076394657784 2.8559794972766395 -1 0 0
61 0 2 0 13.973517441578732 14.01848846795719 6.945713540554732 -1 0 0
170 0 1 0 15.158155891003524 9.02904138508619 0.6279421617422228 0 0 0
172 0 2 0 11.625812576633276 10.035573403898688 0.390644916680415 0 0 0
173 0 1 0 10.977172742512492 11.594716768983165 3.142036390535648 0 0 0
174 0 1 0 14.18375006245846 11.828630336444073 2.055230055541718 0 0 0
175 0 2 0 16.992503496315333 10.180295774822959 5.5147480386271 0 0 0
176 0 1 0 15.176508172574632 7.381678642956968 5.1108359095512785 0 0 0
177 0 1 0 13.073572332358477 8.918194301580067 3.058428798271523 0 0 0
180 0 1 0 13.65760725017489 11.06151176189885 5.427216648361589 0 0 0
182 0 1 0 15.158155890876468 9.029041385234157 7.9279421615897165 0 0 0
50 0 1 0 -4.3418441089609665 15.784039534728162 0.627942161905916 0 0 0
51 0 1 0 -10.205377567494562 19.682023913172547 0.49756982325056776 0 0 0
52 0 2 0 -7.874187423247589 16.7905715531847 0.39064491680601143 0 0 0
53 0 1 0 -8.522827257904972 18.349714918365752 3.1420363904437094 0 0 0
54 0 1 0 -5.316249937831896 18.583628486346377 2.0552300551967204 0 0 0
57 0 1 0 -6.4264276676669 15.673192451579354 3.058428798737096 0 0 0
59 0 1 0 -11.306563644615327 19.829728135219643 4.523654219868311 0 0 0
62 0 1 0 -4.341844108736336 15.784039535374845 7.927942161340422 0 0 0
63 0 1 0 -10.205377567375294 19.68202391501433 7.797569823644347 0 0 0
55 0 2 0 -2.5074965039473804 16.935293924432155 5.5147480377390865 0 0 0
56 0 1 0 -4.323491827307826 14.136676792530661 5.110835909541318 0 0 0
60 0 1 0 -5.842392750243519 17.816509912414904 5.427216648402572 0 0 0
122 0 1 0 3.458155890963587 15.78403953531964 0.6279421614347457 0 0 0
123 0 1 0 -2.4053775673059494 19.68202391468567 0.49756982368036945 0 0 0
124 0 2 0 -0.07418742259295286 16.790571552635242 0.39064491693799813 0 0 0
125 0 1 0 -0.7228272573872463 18.349714918569724 3.142036390367397 0 0 0
126 0 1 0 2.4837500624043773 18.583628486385138 2.055230055678042 0 0 0
131 0 1 0 -3.506563644597918 19.829728135296662 4.523654219431092 0 0 0
134 0 1 0 3.458155890987893 15.784039534357621 7.927942161725516 0 0 0
135 0 1 0 -2.4053775672140834 19.68202391348717 7.797569823086703 0 0 0
127 0 2 0 5.2925034958512445 16.935293923922124 5.514748038431243 0 0 0
128 0 1 0 3.47650817275872 14.136676791444696 5.110835909940401 0 0 0
129 0 1 0 1.3735723330784797 15.67319245127678 3.0584287989739756 0 0 0
132 0 1 0 1.957607249978869 17.81650991206846 5.427216648745774 0 0 0
194 0 1 0 11.258155891327474 15.78403953566159 0.6279421617585054 0 0 0
195 0 1 0 5.394622432608308 19.682023914515575 0.49756982365632735 0 0 0
196 0 2 0 7.725812576888876 16.79057155275736 0.39064491649996846 0 0 0
197 0 1 0 7.077172741841538 18.349714917829886 3.1420363903212345 0 0 0
198 0 1 0 10.283750061676498 18.583628486548793 2.0552300556999654 0 0 0
203 0 1 0 4.293436355669904 19.829728134974758 4.523654219841315 0 0 0
206 0 1 0 11.258155890967721 15.78403953450179 7.927942161657225 0 0 0
207 0 1 0 5.394622432804374 19.68202391390284 7.797569823148548 0 0 0
199 0 2 0 13.092503496204886 16.935293924487983 5.514748038761651 0 0 0
200 0 1 0 11.276508172377115 14.136676792696194 5.1108359095115725 0 0 0
201 0 1 0 9.173572332344957 15.673192451196647 3.0584287982848544 0 0 0
204 0 1 0 9.75760724997148 17.81650991145322 5.427216648549746 0 0 0
16 0 2 0 -0.07418742340788054 3.2805752537049746 7.690644916397545 0 0 0
17 0 1 0 -0.7228272581782496 4.839718618982963 10.442036389959148 0 0 0
18 0 1 0 2.483750061951352 5.073632187284375 9.355230055377737 0 0 0
22 0 2 0 21.493341246055763 1.5400800954938918 10.15597949678719 -1 0 0
23 0 1 0 -3.5065636444404493 6.31973183582698 11.82365421986129 0 0 0
46 0 2 0 17.5933412465323 8.295078245077939 10.155979496981178 -1 0 0
19 0 2 0 5.292503495682849 3.4252976253830973 12.814748038927647 0 0 0
20 0 1 0 3.476508172477524 0.6266804933028656 12.410835909344021 0 0 0
21 0 1 0 1.3735723322277251 2.1631961522671292 10.358428798111218 0 0 0
24 0 1 0 1.9576072494264585 4.306513612762824 12.727216648318228 0 0 0
88 0 2 0 7.725812576246554 3.280575254784601 7.690644916903738 0 0 0
89 0 1 0 7.077172741949873 4.839718619360346 10.442036390907656 0 0 0
90 0 1 0 10.28375006196416 5.0736321870875845 9.355230055311615 0 0 0
94 0 2 0 5.893341246492629 1.5400800958066863 10.155979497147433 0 0 0
95 0 1 0 4.293436355243405 6.3197318362165875 11.823654219896028 0 0 0
118 0 2 0 1.9933412471076997 8.295078245476823 10.155979496862697 0 0 0
91 0 2 0 13.092503496199901 3.425297625196015 12.814748037978665 0 0 0
92 0 1 0 11.276508172574918 0.6266804934734845 12.410835909424431 0 0 0
93 0 1 0 9.173572332003163 2.163196152422578 10.358428798665994 0 0 0
96 0 1 0 9.757607250019836 4.306513612965645 12.727216648509241 0 0 0
160 0 2 0 15.525812577090205 3.2805752540171302 7.69064491668088 0 0 0
161 0 1 0 14.87717274286767 4.839718619361544 10.442036390438604 0 0 0
162 0 1 0 18.083750062860954 5.073632187016277 9.355230055230257 0 0 0
166 0 2 0 13.693341247004742 1.5400800956817486 10.155979496537155 0 0 0
167 0 1 0 12.093436355525409 6.319731835912005 11.823654219192438 0 0 0
190 0 2 0 9.793341246793577 8.295078245368357 10.155979496938794 0 0 0
163 0 2 0 20.892503496676095 3.4252976251858946 12.8147480388125 0 0 0
164 0 1 0 19.0765081723467 0.6266804935235184 12.41083591022264 0 0 0
165 0 1 0 16.973572332904446 2.1631961523582954 10.35842879864917 0 0 0
168 0 1 0 17.557607250190298 4.306513612635422 12.727216648945301 0 0 0
41 0 1 0 -4.622827258239957 11.594716769113914 10.442036390495904 0 0 0
47 0 1 0 -7.406563644806765 13.074729986150706 11.823654220420744 0 0 0
40 0 2 0 -3.974187423401956 10.035573403755707 7.690644916818834 0 0 0
42 0 1 0 -1.4162499383658265 11.828630337013545 9.35523005565507 0 0 0
43 0 2 0 1.3925034956897697 10.18029577478433 12.814748038319575 0 0 0
44 0 1 0 -0.42349182710818356 7.381678642410219 12.410835909085888 0 0 0
45 0 1 0 -2.5264276678458146 8.91819430181476 10.358428798546237 0 0 0
48 0 1 0 -1.9423927501823615 11.06151176246549 12.7272166483459 0 0 0
119 0 1 0 0.3934363553898157 13.074729985582811 11.823654219562348 0 0 0
142 0 2 0 -1.906658753753315 15.050076395043272 10.155979496924559 0 0 0
112 0 2 0 3.825812577097248 10.035573403904303 7.69064491694171 0 0 0
113 0 1 0 3.177172742729536 11.594716768927576 10.442036390977112 0 0 0
114 0 1 0 6.383750062733117 11.828630336817906 9.35523005590866 0 0 0
115 0 2 0 9.192503496474789 10.180295775163833 12.814748038396525 0 0 0
116 0 1 0 7.376508172752233 7.381678643069788 12.410835909588553 0 0 0
117 0 1 0 5.273572332687373 8.91819430178152 10.35842879872378 0 0 0
120 0 1 0 5.857607250458734 11.061511762112188 12.727216648746905 0 0 0
191 0 1 0 8.193436355434885 13.074729986054912 11.823654220414102 0 0 0
214 0 2 0 5.8933412468418656 15.050076395024279 10.155979496799597 0 0 0
70 0 2 0 13.693341246736345 15.050076394795935 10.155979496512556 -1 0 0
184 0 2 0 11.625812577004204 10.035573403524157 7.690644916826939 0 0 0
185 0 1 0 10.977172742436775 11.594716769339758 10.442036390292284 0 0 0
186 0 1 0 14.183750062845267 11.828630336834108 9.355230055501847 0 0 0
187 0 2 0 16.992503495733377 10.180295775100433 12.814748038338033 0 0 0
188 0 1 0 15.176508172659023 7.381678642833019 12.410835909680452 0 0 0
189 0 1 0 13.073572332529006 8.918194302203718 10.358428798780146 0 0 0
192 0 1 0 13.657607249636271 11.061511762809753 12.727216648618477 0 0 0
64 0 2 0 -7.874187423083356 16.79057155268408 7.690644916370178 0 0 0
65 0 1 0 -8.522827257576418 18.34971491833806 10.44203639002028 0 0 0
66 0 1 0 -5.316249937844069 18.583628486350143 9.355230055311395 0 0 0
69 0 1 0 -6.426427667276165 15.673192451167672 10.358428798013438 0 0 0
71 0 1 0 -11.306563644623346 19.829728134748724 11.823654219453951 0 0 0
67 0 2 0 -2.5074965033036687 16.935293924452157 12.814748039075331 0 0 0
68 0 1 0 -4.323491827414781 14.136676792724687 12.41083590971647 0 0 0
72 0 1 0 -5.842392749951298 17.816509911343687 12.727216648454425 0 0 0
136 0 2 0 -0.07418742398599143 16.79057155361361 7.690644916305964 0 0 0
137 0 1 0 -0.7228272578196346 18.349714918506884 10.442036390324432 0 0 0
138 0 1 0 2.483750062273689 18.58362848612039 9.355230054909239 0 0 0
143 0 1 0 -3.506563644614671 19.82972813483265 11.823654219777227 0 0 0
139 0 2 0 5.292503496570346 16.935293924757026 12.814748038444387 0 0 0
140 0 1 0 3.476508172349517 14.136676793560722 12.410835909141804 0 0 0
141 0 1 0 1.3735723317616593 15.673192451522773 10.358428797816062 0 0 0
144 0 1 0 1.9576072498700228 17.816509911554913 12.727216648138915 0 0 0
208 0 2 0 7.725812576300008 16.790571553335596 7.690644916633886 0 0 0
209 0 1 0 7.077172742649774 18.349714918946077 10.442036390415877 0 0 0
210 0 1 0 10.283750062478068 18.583628486095783 9.355230055008883 0 0 0
215 0 1 0 4.293436355153373 19.829728135236525 11.823654219654731 0 0 0
211 0 2 0 13.092503496719461 16.93529392430133 12.814748038244012 0 0 0
212 0 1 0 11.27650817269263 14.136676792770084 12.410835909810135 0 0 0
213 0 1 0 9.173572332394054 15.673192451464436 10.35842879825016 0 0 0
216 0 1 0 9.75760725019915 17.81650991158749 12.727216648453268 0 0 0

Velocities

1 0 0 0
2 0 0 0
3 0 0 0
4 0 0 0
5 0 0 0
6 0 0 0
10 0 0 0
11 0 0 0
13 0 0 0
14 0 0 0
15 0 0 0
25 0 0 0
34 0 0 0
37 0 0 0
7 0 0 0
8 0 0 0
9 0 0 0
12 0 0 0
73 0 0 0
74 0 0 0
75 0 0 0
76 0 0 0
77 0 0 0
78 0 0 0
82 0 0 0
83 0 0 0
85 0 0 0
86 0 0 0
87 0 0 0
97 0 0 0
106 0 0 0
109 0 0 0
79 0 0 0
80 0 0 0
81 0 0 0
84 0 0 0
145 0 0 0
146 0 0 0
147 0 0 0
148 0 0 0
149 0 0 0
150 0 0 0
154 0 0 0
155 0 0 0
157 0 0 0
158 0 0 0
159 0 0 0
169 0 0 0
178 0 0 0
181 0 0 0
151 0 0 0
152 0 0 0
153 0 0 0
156 0 0 0
27 0 0 0
29 0 0 0
35 0 0 0
39 0 0 0
26 0 0 0
28 0 0 0
30 0 0 0
31 0 0 0
32 0 0 0
33 0 0 0
36 0 0 0
38 0 0 0
99 0 0 0
107 0 0 0
111 0 0 0
121 0 0 0
130 0 0 0
133 0 0 0
98 0 0 0
100 0 0 0
101 0 0 0
102 0 0 0
103 0 0 0
104 0 0 0
105 0 0 0
108 0 0 0
110 0 0 0
171 0 0 0
179 0 0 0
183 0 0 0
193 0 0 0
202 0 0 0
205 0 0 0
49 0 0 0
58 0 0 0
61 0 0 0
170 0 0 0
172 0 0 0
173 0 0 0
174 0 0 0
175 0 0 0
176 0 0 0
177 0 0 0
180 0 0 0
182 0 0 0
50 0 0 0
51 0 0 0
52 0 0 0
53 0 0 0
54 0 0 0
57 0 0 0
59 0 0 0
62 0 0 0
63 0 0 0
55 0 0 0
56 0 0 0
60 0 0 0
122 0 0 0
123 0 0 0
124 0 0 0
125 0 0 0
126 0 0 0
131 0 0 0
134 0 0 0
135 0 0 0
127 0 0 0
128 0 0 0
129 0 0 0
132 0 0 0
194 0 0 0
195 0 0 0
196 0 0 0
197 0 0 0
198 0 0 0
203 0 0 0
206 0 0 0
207 0 0 0
199 0 0 0
200 0 0 0
201 0 0 0
204 0 0 0
16 0 0 0
17 0 0 0
18 0 0 0
22 0 0 0
23 0 0 0
46 0 0 0
19 0 0 0
20 0 0 0
21 0 0 0
24 0 0 0
88 0 0 0
89 0 0 0
90 0 0 0
94 0 0 0
95 0 0 0
118 0 0 0
91 0 0 0
92 0 0 0
93 0 0 0
96 0 0 0
160 0 0 0
161 0 0 0
162 0 0 0
166 0 0 0
167 0 0 0
190 0 0 0
163 0 0 0
164 0 0 0
165 0 0 0
168 0 0 0
41 0 0 0
47 0 0 0
40 0 0 0
42 0 0 0
43 0 0 0
44 0 0 0
45 0 0 0
48 0 0 0
119 0 0 0
142 0 0 0
112 0 0 0
113 0 0 0
114 0 0 0
115 0 0 0
116 0 0 0
117 0 0 0
120 0 0 0
191 0 0 0
214 0 0 0
70 0 0 0
184 0 0 0
185 0 0 0
186 0 0 0
187 0 0 0
188 0 0 0
189 0 0 0
192 0 0 0
64 0 0 0
65 0 0 0
66 0 0 0
69 0 0 0
71 0 0 0
67 0 0 0
68 0 0 0
72 0 0 0
136 0 0 0
137 0 0 0
138 0 0 0
143 0 0 0
139 0 0 0
140 0 0 0
141 0 0 0
144 0 0 0
208 0 0 0
209 0 0 0
210 0 0 0
215 0 0 0
211 0 0 0
212 0 0 0
213 0 0 0
216 0 0 0
